# vtk DataFile Version 2.0
ASCII
DATASET UNSTRUCTURED_GRID
POINTS 13 float
0.000000e+00 1.017671e-02 0.000000e+00
1.002951e-01 6.675791e-02 0.000000e+00
9.176560e-02 -2.423464e-02 0.000000e+00
3.537215e-01 8.506989e-02 0.000000e+00
3.412082e-01 -3.182904e-02 0.000000e+00
6.604795e-01 4.467143e-02 0.000000e+00
6.512321e-01 -3.686825e-02 0.000000e+00
9.050423e-01 -1.720968e-02 0.000000e+00
9.019915e-01 -4.379977e-02 0.000000e+00
9.980697e-01 -4.416705e-02 0.000000e+00
2.204915e-01 1.792655e-02 0.000000e+00
5.026654e-01 2.439674e-02 0.000000e+00
7.813104e-01 5.855055e-04 0.000000e+00
CELLS 26 78
2 0 1 
2 1 3 
2 0 2 
2 3 5 
2 2 4 
2 5 7 
2 4 6 
2 7 9 
2 6 8 
2 8 9 
2 1 2 
2 3 4 
2 5 6 
2 7 8 
2 1 10 
2 2 10 
2 3 10 
2 4 10 
2 3 11 
2 4 11 
2 5 11 
2 6 11 
2 5 12 
2 6 12 
2 7 12 
2 8 12 
CELL_TYPES 26
3
3
3
3
3
3
3
3
3
3
3
3
3
3
3
3
3
3
3
3
3
3
3
3
3
3
POINT_DATA 13
VECTORS DISPLACEMENT float
 0.000000e+00 1.017671e-02 0.0
 2.401818e-03 5.894667e-03 0.0
 -1.862949e-03 5.699581e-03 0.0
 4.114982e-03 -6.868145e-03 0.0
 -2.141644e-03 -6.818891e-03 0.0
 2.985492e-03 -2.412931e-02 0.0
 -1.638184e-03 -2.412153e-02 0.0
 2.668800e-04 -3.868992e-02 0.0
 -1.258506e-03 -3.868766e-02 0.0
 -9.651685e-04 -4.416705e-02 0.0
 0.000000e+00 0.000000e+00 0.0
 1.332693e-03 -1.519892e-02 0.0
 9.009576e-04 -3.125882e-02 0.0
CELL_DATA 26
SCALARS S11 float 1
LOOKUP_TABLE default
-2.438272e+03
4.993128e+02
-4.381206e+03
5.242800e+02
-2.100235e+03
1.446168e+02
-5.919158e+02
0.000000e+00
-2.603550e+02
1.814028e-11
2.148580e+03
-4.211601e+02
-9.550332e+01
-8.488558e+01
-2.697975e+03
-2.228093e+03
2.867450e+02
1.435446e+03
2.316704e+02
-1.634389e+02
-2.200758e+02
3.007833e+02
1.715140e+02
-4.919627e+01
-1.425813e+02
2.713689e+02
